# vtk DataFile Version 3.0
Generated by meshtal class from   02/03/21 00:08:52  vtk output
ASCII
DATASET RECTILINEAR_GRID
DIMENSIONS 96 18 15
X_COORDINATES 96 float
0.0
20.0
40.0
60.0
80.0
100.0
120.0
140.0
160.0
180.0
200.0
220.0
240.0
260.0
280.0
300.0
320.0
340.0
360.0
380.0
400.0
420.0
440.0
460.0
480.0
500.0
520.0
540.0
560.0
580.0
600.0
620.0
640.0
660.0
680.0
700.0
720.0
740.0
760.0
780.0
800.0
820.0
840.0
860.0
880.0
900.0
920.0
940.0
960.0
980.0
1000.0
1020.0
1040.0
1060.0
1080.0
1100.0
1120.0
1140.0
1160.0
1180.0
1200.0
1220.0
1240.0
1260.0
1280.0
1300.0
1320.0
1340.0
1360.0
1380.0
1400.0
1420.0
1440.0
1460.0
1480.0
1500.0
1520.0
1540.0
1560.0
1580.0
1600.0
1620.0
1640.0
1660.0
1680.0
1700.0
1720.0
1740.0
1760.0
1780.0
1800.0
1820.0
1840.0
1860.0
1880.0
1900.0
Y_COORDINATES 18 float
-123.5
-103.5
-83.5
-71.0
-58.5
-46.0
-33.5
-22.5
-7.5
7.5
22.5
33.5
46.0
58.5
71.0
83.5
103.5
123.5
Z_COORDINATES 15 float
-150.0
-123.0
-96.0
-69.0
-42.0
-15.0
-2.5
10.0
22.5
35.0
55.0
75.0
95.0
115.0
135.0
CELL_DATA 22610
FIELD FieldData 2 
TotalTally_Thermal8 1 22610 float
0.022782416399999998 0.26531145 0.76472586 0.9436095 1.16836506 1.31865732 1.33648218 1.1907340199999998 1.0190853 0.85200012 0.5511159 0.36301121999999997 0.221304312 0.13624086600000002 0.08771651999999999 0.27076501799999997 0.8834508 1.35612468 1.68240402 1.9950478200000004 2.00129778 1.73866986 1.39844232 1.0767378600000002 0.63636678 0.35887212 0.1935981 0.177459498 0.21364122600000002 0.58260222 1.3737924000000001 2.96494182 3.8296152 4.3134282 4.5406656000000005 3.7432854 2.99109024 1.94397084 0.99358002 0.44037432 0.269111322 0.31458018600000004 0.49186115999999996 1.5401745 3.4340111999999996 7.5496698 11.427982199999999 12.920731199999999 12.2182992 10.439928 8.0084376 4.9667256 2.18446794 0.8419091400000001 0.5070843 0.48901158 1.3071407400000001 4.2695262 9.6717078 20.5520976 35.840232 38.281086 37.578978 31.839399 22.751409600000002 12.570017400000001 5.0158439999999995 1.6710478199999999 0.7006370399999999 0.56301318 2.8289671199999997 15.167233800000002 33.496902 66.929976 129.85369200000002 119.407932 129.466998 105.153876 70.167546 35.58492 10.932894000000001 2.60090352 1.01494296 0.7835211 3.7775160000000003 29.6972892 68.88790800000001 128.390832 294.412158 429.8265 478.9449 359.76473999999996 224.34651000000002 94.71200400000001 17.678800799999998 3.5635464 1.0569754799999997 0.77188302 4.1359086000000005 31.96665 72.53290799999999 145.069218 463.99392 1384.81326 1758.95064 893.2145399999999 457.61436000000003 156.866544 23.2689186 4.288399200000001 1.3951796399999998 0.96052392 4.191474599999999 32.85279 74.448882 154.254456 608.04594 3969.4374 7107.7338 1451.19438 553.8180600000001 179.27082000000001 26.324951399999996 4.7899512 1.5134380200000002 1.01446182 4.3042914 32.326695 72.30011400000001 144.579492 462.32046 1373.2399799999998 1740.75156 887.05368 453.99042 155.628864 23.322232800000002 4.561336799999999 1.44353826 0.9126999 3.5801352 29.442609 68.94558 128.46519 294.046524 426.85866 475.41492 357.73812 222.167934 94.44454200000001 17.473157999999998 3.663873 1.307259 0.94765464 2.84836338 15.4631754 33.516828000000004 67.065246 130.11661800000002 119.144196 128.46324599999997 105.41939400000001 69.622578 34.740576000000004 10.927434599999998 2.5363449 1.0560958200000001 0.7797319199999999 1.3422186 4.3817598 9.5820246 20.739888 35.944398 38.323368 37.57185 31.697033400000002 22.6262322 12.328248599999998 4.792365 1.6512579 0.69190686 0.5923108800000001 0.49878342000000003 1.50216606 3.5108964 7.5922272 11.4364872 13.081597200000001 12.574213199999999 10.5585606 7.9689744 4.825089 2.1206512799999997 0.77115402 0.48802661999999997 0.44167032 0.24225156 0.63255006 1.3717236600000002 2.9823552 4.0204836 4.5326466 4.3439976 3.7730772000000004 2.8808217000000003 1.94321754 0.93762198 0.40207104 0.28728172799999996 0.357453 0.09171873 0.314930268 0.8154415800000001 1.52046396 1.72297692 2.02749156 1.8398502 1.79551242 1.4275715400000002 1.0846386 0.60770898 0.33783156000000003 0.187113078 0.19105632 0.026268948 0.22555114199999998 0.79385346 1.06262442 1.2321622799999998 1.32003432 1.1368139400000001 1.15547634 1.09123848 0.82832706 0.53648892 0.3498795 0.226864476 0.140116878 0.040340106 0.283355334 0.8190558 1.0403154 1.28228184 1.3753152000000002 1.3379823000000002 1.1846282399999999 1.1685902400000001 0.91010952 0.6370390800000001 0.32743035 0.230140278 0.16155903600000002 0.10587801599999999 0.3496608 0.9279505800000001 1.41938892 1.7877429 2.02061628 1.9631095200000002 1.71247932 1.5679818 1.17433476 0.65089818 0.34356798 0.180262908 0.180235368 0.285686676 0.6954514199999999 1.6608175200000002 2.8914003 4.0415922 4.4156016000000005 4.0144248 3.5423244 2.9419815600000003 2.03699934 0.9723969000000001 0.4190616 0.27258508800000003 0.325616436 0.6285810599999999 1.8088596 4.155591599999999 7.9736238 11.183589000000001 12.277574999999999 11.399891400000001 9.9669366 7.9990092 4.8188682 2.41184142 0.89045082 0.46082196 0.49178178 1.7682267600000001 5.173065 10.9052406 21.718773 33.296346 32.791068 31.380420599999997 27.2953476 20.8009944 12.486798 5.439717 1.7289595800000002 0.78777198 0.6352570799999999 3.7134612000000002 17.665889399999998 37.385549999999995 69.45669 115.064064 84.66103799999999 88.93184400000001 77.57402400000001 58.079916 33.184242 11.6235486 2.9646032399999998 1.08464022 0.76687884 4.726560600000001 33.861726 77.011074 134.44509599999998 245.38885199999999 251.269776 267.76575 231.611724 173.046132 83.73083399999999 18.040935599999997 3.7725264000000003 1.2511049399999998 0.8754398999999999 5.4529686 36.761202 80.64991800000001 146.427912 311.890176 488.21778000000006 536.3884800000001 437.99454000000003 329.12892 131.32627200000002 22.3757802 4.403597400000001 1.35977778 0.9525437999999999 6.1371108 37.43884800000001 81.924534 152.8308 343.9746 686.2060799999999 893.66166 493.36614 362.12184 144.48456 24.699556799999996 4.763431800000001 1.41675318 0.9421191 5.4693792 36.193392 80.62124399999999 147.087576 310.150944 485.86878 535.09248 436.62077999999997 331.61238000000003 130.804632 22.3749378 4.365333 1.3762580400000002 0.9982958399999999 4.629393 33.627635999999995 77.515704 134.42095799999998 245.15281800000002 248.911704 268.330968 231.09024599999998 174.71991599999998 83.916972 17.4175434 3.673836 1.4279166 0.96805692 3.7031742 17.9574894 37.113065999999996 70.3971 114.88197600000001 84.683718 89.209512 77.37168600000001 57.681234 32.809698 11.326570199999999 2.7870123600000003 0.99107226 0.89065656 1.8454716 5.1932988 11.170402199999998 22.2101352 33.395652 32.754942 31.1583186 27.1177146 20.8598004 12.5875134 5.308691400000001 1.76419296 0.78303024 0.58539024 0.67058604 1.84824342 4.1021964 8.2331964 11.1695436 11.9346858 11.246801399999999 10.0048446 7.8191892 4.9772394 2.34222678 0.9755478 0.5003159399999999 0.49120344 0.274263894 0.76593924 1.5655194000000001 3.08056932 4.0296852 4.341227399999999 4.2796998 3.5233056 2.9554048799999997 1.9606779 1.01503692 0.48785652 0.29972511 0.33487182 0.103058568 0.318466566 0.88183566 1.4859028800000003 1.81743102 2.03081256 2.1535146000000003 1.77854778 1.51872894 1.02560256 0.6832560599999999 0.33950501999999994 0.210615714 0.20083480199999998 0.0368776314 0.250161696 0.81833652 1.1127456 1.3111226999999999 1.34940492 1.4156677800000002 1.38793824 1.08813132 0.8198123399999999 0.6023710800000001 0.3761964 0.197777214 0.16288047 0.0351128358 0.28491588 0.7259139000000001 1.0290887999999998 1.18084878 1.1813380199999999 1.1467737 0.97250058 1.0312272 0.79545888 0.5754353400000001 0.319133358 0.21615627599999998 0.13176383400000002 0.097954434 0.324365634 0.8139754800000001 1.23072048 1.4789449799999999 1.45656792 1.49882238 1.32746688 1.26044262 0.90286488 0.49776119999999996 0.28748843999999996 0.190373814 0.16555914 0.24512641200000002 0.62344566 1.4007346200000002 2.3465586599999995 2.7737510400000005 2.7896578200000004 2.82644478 2.4899059799999996 2.0701089 1.36822608 0.79581366 0.39398724 0.245061774 0.30922446600000003 0.6194912400000001 1.6599702600000001 3.5285544 6.2922096 7.5433518 7.442847 6.7690079999999995 6.107918400000001 4.9903776 3.4176006 1.69916778 0.7263755999999999 0.387473868 0.42728634 1.70395488 4.6064538 9.324995399999999 16.8509484 21.5316954 18.0558882 16.304571000000003 15.1011864 12.138498 8.017234199999999 3.6720216 1.38234924 0.628641 0.57949182 3.8435796 16.662186000000002 33.428861999999995 55.398168 74.277486 41.561424 42.721182 38.926494000000005 32.1352758 20.50029 8.0027514 2.1098005200000003 0.83118636 0.75962124 4.7307564 32.680746 72.24438599999999 109.673838 156.36320999999998 118.756044 123.012918 114.43761 98.758602 51.836274 11.9785878 2.79976986 1.00398204 0.78566274 7.334647200000001 35.832456 73.52548200000001 114.94126800000001 175.977198 212.461704 231.83836200000002 210.70951200000002 191.85255 79.034454 14.511052800000002 3.14282592 1.1735847000000001 0.94446486 18.240147 46.639476 75.08051999999999 117.772542 181.249164 294.14939400000003 417.64572 215.042202 197.450784 84.023082 15.817064400000001 3.4298640000000002 1.22712246 0.93430098 7.158148199999999 36.137988 74.27278799999999 115.252956 174.684276 211.08308399999999 230.31993599999998 209.38127400000002 190.565298 79.394418 14.3697078 3.17320092 1.18036764 0.87287706 4.683776399999999 32.565564 71.78592599999999 109.313874 156.39901200000003 117.688788 122.148 116.28068400000001 98.34048000000001 52.210818 11.6906166 2.70985338 0.9721053 0.789426 3.6595314 16.956313199999997 33.743142 55.13832 73.930158 41.678064 42.592715999999996 39.460932 31.679602199999998 20.877636600000002 8.060666399999999 2.12974596 0.7921994400000001 0.73139274 1.67089554 4.8625110000000005 9.36684 16.8724134 21.2854068 17.9169408 16.5385152 15.134412600000001 11.953332 8.2632798 3.9381876 1.3968612 0.6607898999999999 0.56524068 0.63232812 1.6894153799999998 3.481461 6.2481618 7.6249674 7.4229534 6.7085496 6.172977599999999 5.1167052 3.416013 1.7938713600000002 0.7242987599999999 0.5105673 0.46057734 0.241091316 0.6713992799999999 1.36914948 2.4206542200000003 2.74906872 3.01929282 2.61867816 2.53322316 2.1148128 1.37914974 0.8294545799999999 0.37935216 0.288948546 0.3528522 0.084168558 0.28252654200000005 0.77531904 1.19171088 1.4405769 1.5343019999999998 1.5063408 1.37505276 1.1808293399999998 0.8303796000000001 0.5620687200000001 0.296528364 0.200706822 0.23821209 0.0326031966 0.26177920200000004 0.69513876 1.01827368 1.1567464200000002 1.22409792 1.19290158 1.12738068 0.87681528 0.74879154 0.581499 0.35487072 0.21292550999999998 0.160256232 0.0204051312 0.207510336 0.6122547 0.82024002 0.9207675 0.8770032000000001 0.8875251 0.84815748 0.78133086 0.61302096 0.39021101999999996 0.246432294 0.17401878 0.13579812 0.052188786 0.230184018 0.5858892 0.89355474 1.03542624 0.9248012999999999 0.97840548 0.87015546 0.78298974 0.5588838 0.37730124 0.21286573199999997 0.15128207999999999 0.15993142200000002 0.195670242 0.5317309800000001 1.00193112 1.6140627 1.7300239199999998 1.6757118000000002 1.47674664 1.32964254 1.1167664400000001 0.88503678 0.44305218 0.2132811 0.174838824 0.273555954 0.52225884 1.38577554 2.5763831999999995 4.2942798 4.6343826 4.231018799999999 3.4338168 3.28212 2.6548252199999998 1.886571 1.0651370399999998 0.45215819999999995 0.36024264 0.36885294 1.39898988 3.8446488 7.1478612 11.654037 12.555988200000002 9.738710999999999 8.673609599999999 7.833736799999999 6.3754614 4.637379600000001 2.4903093600000004 0.9579708 0.55528902 0.52174692 3.2341501800000003 14.7847842 27.589264200000002 40.127724 45.97673399999999 21.537332999999997 21.207112199999997 19.6318404 17.0907084 11.620746 4.9895676 1.37847258 0.6711141599999999 0.5753640600000001 4.037688 29.0953296 61.76493000000001 83.858976 101.77083 64.388844 65.78074799999999 62.295642 56.021058 30.6765468 7.2632214 1.71902898 0.68842386 0.5889671999999999 5.6816478 30.2742846 63.020592 85.12176600000001 109.105542 122.95767599999999 135.60534 120.824946 117.682308 46.957967999999994 8.4762612 1.93117932 0.7069194000000001 0.6393492000000001 11.2133646 33.480216 63.3096 86.343894 110.246184 184.11186600000002 284.05501200000003 123.164064 118.48647600000001 48.582666 9.0708498 2.16767988 0.81338094 0.6558165 5.5311012 30.798046799999998 62.84482200000001 85.38453000000001 108.516672 122.17311000000001 134.861112 121.23982799999999 116.95930200000001 46.7613 8.4571452 1.9858365 0.8319266999999999 0.68220468 4.0229298 28.85382 61.914941999999996 83.28225599999999 101.04879600000001 64.013814 65.109744 63.254681999999995 56.860866 30.7308654 7.1568198 1.7864258400000002 0.7143697800000001 0.67355388 3.2977044 14.440874399999998 27.077328 39.803562 46.375578 21.6978264 20.9182014 20.392203600000002 16.441947 11.629234799999999 4.7107332 1.44481968 0.62164746 0.5390387999999999 1.48821786 3.9414762000000003 7.3119347999999995 11.515446 12.6570924 9.9071424 8.521929 7.8144102 6.238296 4.611735 2.3635508400000003 0.9391301999999999 0.49564386 0.49364801999999997 0.4964976 1.34911008 2.56079394 4.3878348 4.47363 4.068063 3.6066222 3.1174486200000002 2.66532282 1.90645812 1.0825731 0.49077576 0.31645663199999996 0.40226706 0.220532382 0.53609202 0.9981711000000001 1.6893279 1.75836582 1.63190538 1.5303492 1.33836786 1.17133128 0.79277454 0.48187548 0.240319386 0.186436566 0.31125303 0.058070682 0.24609857400000001 0.63888912 0.91661868 0.9433502999999999 0.9226110599999999 0.93382956 0.93865716 0.8950321800000001 0.52912764 0.337927788 0.21333958200000003 0.13354551 0.180523404 0.0214169022 0.23067828 0.5825762999999999 0.77715126 0.87386526 0.8932501800000001 0.83184894 0.88930548 0.7532092800000001 0.5560779600000001 0.38442924 0.285734304 0.161967276 0.136571508 0.0207558126 0.153917172 0.48515759999999997 0.6358661999999999 0.6671629800000001 0.6126435 0.6009114600000001 0.50174802 0.48167622 0.39579516000000003 0.269843724 0.22846827600000003 0.12664350000000002 0.113991462 0.06517519199999999 0.17256321 0.39400182 0.6682257 0.60058422 0.6109749 0.59623938 0.55733346 0.47526263999999996 0.40402314 0.246201768 0.145146816 0.080937306 0.132245946 0.161223372 0.43382628 0.75335022 1.03858848 1.00436922 1.00409058 0.88844526 0.82881144 0.74415834 0.5031396 0.3375918 0.157363398 0.141211026 0.22210038 0.46896732 1.1287382400000001 1.9582333200000002 2.78378208 2.58758388 2.3865354 2.1404655000000004 1.9224864 1.71921366 1.1103852600000002 0.7062244200000001 0.296977914 0.270447336 0.33906907799999997 1.1686404599999998 3.13610292 5.224645799999999 7.5940254 7.734155400000001 5.4615545999999995 5.1600564 4.409073 3.8447946 2.69128818 1.38866076 0.6196014 0.335998044 0.39135312 2.62011672 12.0629898 21.1864572 28.5430554 30.3946668 13.213449 12.283002 11.2989654 9.512089199999998 6.744789000000001 2.9901717000000003 0.90983574 0.39970584 0.39147462 3.28939704 24.055461 51.360804 64.04751 70.899138 41.043672 41.970473999999996 39.215826 35.27631 18.9652752 4.2775938 1.0200346200000001 0.47862899999999997 0.47075094 3.4628472 25.2286002 51.481818000000004 63.718812 74.768832 85.323942 95.237532 81.02883599999998 78.674004 29.4314472 5.040549 1.16621532 0.45386730000000003 0.44951922 3.75192 25.7673636 51.706998 64.40828400000001 75.251592 140.306094 230.15097 84.523662 79.89759 30.5303418 5.4151254 1.24736598 0.5539995 0.50920974 3.30873174 25.385075999999998 51.93153000000001 64.000044 74.506878 83.16999 94.244148 81.452628 79.572618 29.386395 5.2870805999999995 1.2067461000000002 0.5666403600000001 0.5801381999999999 3.11024934 23.868755999999998 51.437106 63.205110000000005 70.30605599999998 41.775912 41.874246 39.508883999999995 34.98795 18.9984204 4.1721965999999995 1.1427528599999999 0.4957524 0.49583664000000005 2.7138709800000003 11.9035818 21.345849 28.2404232 30.6852624 12.899331 12.6200106 11.4630714 9.7474914 6.739232400000001 2.9549707200000004 0.85129704 0.39639942000000006 0.40290210000000004 1.19530242 3.2087259 5.2518294 7.744021199999999 8.095253399999999 5.6663874 5.1157494 4.619510999999999 3.6993672 2.6823879 1.36848204 0.53943246 0.34489638 0.341334 0.40605948000000003 1.11109158 1.9123662599999998 2.74231332 2.7494721 2.3453906399999997 2.16629802 1.9716307199999998 1.5866199 1.08728244 0.71715132 0.28497241800000006 0.214677378 0.27891458999999996 0.18146673 0.42786954 0.7073179199999999 1.1097437399999999 1.02274974 1.01862684 0.8675829 0.79582176 0.70038756 0.49444344 0.34709796000000004 0.137740986 0.133948242 0.198542664 0.06937196400000001 0.19578250800000002 0.47964959999999995 0.67004496 0.5953176 0.58913568 0.6775731 0.5333526 0.4606227 0.39923118 0.27389907 0.155891952 0.077399712 0.12931974000000002 0.0199154862 0.19315551599999997 0.5001669 0.5921262 0.61181568 0.59676102 0.56353644 0.61148358 0.56958228 0.44673768 0.28331353800000003 0.192974076 0.135363636 0.097869384 0.0116957034 0.105373872 0.3632202 0.44586936 0.42266286 0.45055278 0.42795702 0.4144608 0.34729074 0.31640868 0.244837242 0.14224491 0.087769008 0.067009032 0.043669691999999996 0.14820975 0.315340452 0.44774208 0.39662946 0.39423834 0.36348912 0.37468493999999997 0.300310902 0.230839956 0.215758728 0.111228066 0.06148742399999999 0.096643206 0.119506914 0.297378054 0.5190123600000001 0.75833496 0.66655872 0.6651558 0.50219028 0.49780817999999993 0.44737109999999997 0.34157052 0.200052504 0.08639492400000001 0.102561228 0.18480684600000002 0.32064627599999995 0.7533000000000001 1.41721326 1.89765018 1.73185938 1.4795865 1.3036626 1.1436552 1.00463004 0.6743979 0.38546442 0.169838694 0.175363218 0.228184938 0.95347206 2.26855728 3.9411684000000005 5.2735536 5.208073199999999 3.750786 3.2503194 2.88744426 2.4402659399999997 1.6522461 0.82100628 0.37682819999999995 0.240112512 0.20879613 2.0480493600000003 9.506646 16.4572236 21.3102414 21.5723412 9.466712999999999 8.6476572 7.7673977999999995 6.2970696 4.334990400000001 1.75889556 0.47103282 0.266838462 0.27487981799999994 2.64364884 20.293416 41.899194 50.034024 52.212114 30.1531572 30.7314 28.3723074 24.8913486 13.168656000000002 2.7305829 0.6052093199999999 0.30389320799999997 0.28141068599999997 2.8646427599999997 21.310970400000002 42.494705999999994 49.529556 55.607472 66.480264 74.92419000000001 60.450948 57.381534 20.6804178 3.1767730199999997 0.74446128 0.317013102 0.30697315199999997 2.91408678 21.108810599999998 42.50799 49.776120000000006 56.157300000000006 117.605844 198.620748 64.432584 58.336686 21.4358724 3.4129836 0.71807796 0.33359688 0.33120171 2.77383366 21.452088600000003 42.632406 49.509468000000005 55.545426 65.020644 73.490328 60.892236 57.408264 20.569139999999997 3.2391332999999998 0.74965824 0.37221768 0.38239614 2.5535978999999998 20.2726638 42.507666 49.835736 52.451874000000004 30.201854400000002 30.8374452 28.4508774 25.4645856 13.027635 2.61041292 0.6250251600000001 0.301466772 0.32561303399999997 2.0583153000000003 9.534850200000001 16.650846 20.6993718 21.4607556 9.4068216 9.1094868 7.792621199999999 6.7107204 4.536324 1.9389618 0.55573452 0.31664439 0.287089596 0.9583434 2.23290756 3.8528298 5.2818966000000005 5.2715772 3.5998668 3.4289892 2.89415106 2.29615884 1.68846444 0.8538372000000001 0.40382388 0.219106944 0.264548268 0.326569482 0.75143214 1.33288254 1.9696235400000002 1.89784782 1.51061436 1.3118030999999999 1.21122378 0.9623399400000001 0.70020288 0.42426828 0.200597634 0.13084254 0.225759474 0.124379874 0.285159366 0.46749959999999996 0.67132638 0.68825862 0.5347668600000001 0.53388558 0.49870566000000005 0.37237482 0.297397008 0.16109895600000002 0.10052505 0.10220304599999999 0.13879155599999998 0.052217784 0.14929191 0.29366955 0.43976033999999997 0.37206702 0.37503324 0.34253717399999994 0.316969524 0.279753912 0.22724776799999996 0.172816254 0.11175100199999999 0.092880594 0.111251394 0.015207507 0.141921234 0.38273634 0.46840518 0.39262968 0.39303792 0.42269687999999994 0.38792844 0.32212209599999997 0.32369106599999997 0.19462501799999998 0.166217022 0.11339514 0.074705166 0.0096492222 0.09900889199999999 0.274528926 0.30459807 0.269257608 0.284852538 0.297725544 0.219878874 0.27706212 0.210589632 0.16084931400000002 0.128721798 0.073969038 0.05323968 0.03778326 0.10224873000000001 0.228432636 0.289581318 0.222127434 0.265310964 0.28095400800000003 0.18687347999999998 0.22874076 0.14383672199999997 0.13466007 0.071222166 0.044026416 0.079086294 0.097787412 0.22789188 0.3571371 0.46741536 0.46597679999999997 0.4044006 0.37964213999999996 0.34960734000000004 0.257778936 0.156194406 0.105044526 0.047155608 0.057052835999999996 0.104220432 0.21016713600000003 0.5513913 0.9291915 1.3288584600000002 1.2192508800000001 1.0292103 0.9379346399999999 0.84279528 0.6889568400000001 0.47409786 0.279254142 0.112780836 0.11338995600000001 0.16249685400000002 0.67371264 1.6407975600000002 2.9051945999999997 3.756294 3.759291 2.60502642 2.33439246 1.97433126 1.62936522 1.0526193 0.56569104 0.200155212 0.147621366 0.18199096199999998 1.5513330600000002 7.5053142 12.953260799999999 15.9610338 16.1174448 7.0205778 6.4647234 5.5602774 4.5309942 2.8963234800000004 1.2086949599999999 0.310772214 0.16057342800000002 0.221770062 1.9144528200000002 16.2225018 34.691814 39.741354 41.046426 23.844699 23.851033199999996 21.3610446 18.2350926 8.989331400000001 1.6675388999999998 0.43086006 0.18879852600000002 0.21181467599999998 2.05929702 16.8653664 34.640460000000004 39.733902 44.070966 55.646028 64.150218 49.02201 44.711352 14.920831799999998 2.149902 0.46406034 0.23267476800000003 0.226714464 2.17771092 16.907794199999998 35.232084 39.682548 45.011861999999994 105.105924 181.13349599999998 54.063612 46.031814 15.7678488 2.22864534 0.47041074 0.22403271600000002 0.24590384999999998 2.09475882 16.959942 35.246502 39.34413 44.373582 54.494693999999996 62.891316 48.47202 45.083466 14.773914000000001 2.192913 0.46029870000000006 0.176462064 0.221565132 1.9692703800000002 16.293798000000002 35.116254 40.064706 41.023422 23.1022368 23.860040400000003 21.469746599999997 18.620215199999997 9.226839599999998 1.6508561400000001 0.36075699 0.15973686 0.216002862 1.51042482 7.601347799999999 13.1187276 15.7972518 16.192304999999998 6.8900382 6.6224628 5.7692250000000005 4.5460926 2.8752489 1.1582757 0.32910121800000003 0.19577424599999999 0.24068583 0.64635894 1.7739405 2.9289081599999998 3.6966942 3.6410148 2.72264004 2.4442155000000003 2.12758164 1.61335314 1.13308632 0.50328216 0.23198480999999999 0.128357946 0.20599838999999998 0.211523562 0.55832328 1.0382823 1.3331141999999998 1.22141034 1.0841056199999999 0.93530052 0.77251968 0.59335092 0.45426582 0.28859895 0.114781212 0.089052858 0.14106085200000001 0.07909812000000001 0.22668044399999998 0.41876514 0.48010644 0.47332188 0.40137606000000003 0.33478272 0.31896844199999996 0.31298707800000003 0.192207168 0.13219038 0.058139694000000006 0.046449126 0.08910453599999998 0.024444180000000003 0.099701928 0.236037726 0.289538874 0.261826182 0.22755556799999999 0.222993 0.23525251200000002 0.185597568 0.14953977 0.11221092 0.069719292 0.049388615999999996 0.066846222 0.0088244316 0.080269542 0.26385409800000004 0.29515914 0.29542174200000004 0.32683807800000003 0.286985106 0.302270292 0.23371253999999997 0.179524026 0.15993028799999998 0.11077317 0.07226771400000001 0.07845157800000001 0.012437792999999999 0.087594534 0.216546048 0.244497366 0.220798386 0.19318840199999998 0.238383648 0.18189100800000002 0.204161796 0.164057562 0.117420678 0.100666314 0.068072886 0.042523866 0.022752414 0.078567894 0.195241914 0.216544914 0.22121845199999998 0.151341696 0.182993256 0.187496694 0.130036752 0.11470248 0.106712154 0.057887622 0.034307031599999996 0.053425007999999996 0.061521444 0.146461608 0.282179538 0.36779994 0.35303202 0.326223936 0.287466408 0.253796166 0.20578211999999999 0.141992838 0.10698949799999999 0.044310888 0.06021378 0.083901096 0.188805168 0.42801372000000004 0.7233057 0.99528912 0.9513336600000001 0.79534872 0.7677261 0.67703526 0.45758682 0.35937917999999996 0.196708176 0.09030106800000001 0.06359342400000001 0.095457366 0.46968012000000003 1.3525039799999998 2.27059362 2.8515256200000003 2.78726346 2.1133467 1.9547098200000002 1.66667382 1.2044878199999998 0.84714174 0.39646908000000003 0.15386808600000002 0.08250919200000001 0.13372873200000002 1.26684972 6.0288948 10.3468914 12.867951600000001 12.699666 5.7160566 5.3965602 4.643551799999999 3.6787122 2.2580937 0.90724374 0.234760356 0.09361089 0.156603618 1.36864242 13.5323946 29.234017799999997 32.949017999999995 33.98128199999999 20.3634324 20.394730799999998 17.8623144 14.723127 6.9322392 1.23221574 0.313184556 0.14921884800000002 0.14912472599999999 1.4956407 13.9671378 28.9911636 32.4006318 36.594989999999996 48.730734 57.360473999999996 41.65587 37.079046000000005 11.7630306 1.5598656 0.31048887599999997 0.140570478 0.16742132999999998 1.507815 14.2378884 29.697192 32.332753800000006 37.708577999999996 96.145056 168.79055400000001 47.183958000000004 38.217258 12.3737706 1.6893975600000002 0.37017162000000003 0.15107472 0.14971051800000001 1.41173928 13.919121 29.306496600000003 32.2245054 36.827135999999996 48.104118 55.947996 41.799888 37.894391999999996 11.719566 1.58163516 0.31486158 0.12990342600000002 0.159183468 1.37786022 13.3416558 29.0407356 32.511942000000005 33.356286 19.8095706 20.2483638 18.2200104 14.7936294 7.0092702 1.18253844 0.24275861999999998 0.12262023 0.139403754 1.0956789 5.9299452 10.355493599999999 12.5770806 12.897986399999999 5.7047004 5.5555308 4.7726496 3.5340948 2.19651912 0.7610225399999999 0.18442404 0.12883730399999999 0.129553668 0.49509629999999993 1.38763206 2.2455273599999996 2.7675675 2.84862096 2.14316118 1.9957525200000004 1.6773577199999998 1.2137850000000001 0.8375691599999999 0.356529276 0.167645214 0.09553383 0.151151994 0.19442073599999998 0.4928202 0.8058803400000001 0.9233497799999999 0.9733170600000001 0.79705944 0.6880609799999999 0.66339324 0.46322604 0.33505893 0.15750061199999998 0.06709991400000001 0.07488725400000001 0.11141064 0.067527432 0.176552622 0.291278916 0.36406584 0.34876332 0.30873684599999995 0.268049898 0.23185132199999997 0.212304726 0.141743844 0.095195088 0.052477145999999995 0.041364432 0.08692498800000001 0.018153622799999998 0.061495362 0.178635942 0.209984076 0.189442152 0.1952991 0.202514418 0.173169252 0.183127554 0.11819001600000001 0.073871676 0.064614672 0.035172306 0.054786132 0.0083275452 0.056675376 0.205947198 0.230918526 0.21396571199999997 0.181894086 0.184569516 0.21130518599999998 0.15986808 0.178933212 0.126120888 0.084584412 0.063427536 0.049277645999999994 0.0076951134 0.053701866 0.12178981800000002 0.20207798999999999 0.19350851399999996 0.185474772 0.136597266 0.11723729399999999 0.110552688 0.11567853 0.071175186 0.082034046 0.038591802 0.0320036832 0.012932492399999999 0.050911901999999995 0.105244272 0.16555995 0.16441866 0.150854562 0.16227896400000003 0.122504886 0.11286653399999999 0.082359504 0.055743876 0.040905648 0.0260340804 0.042233562 0.048826476 0.12812628599999998 0.200871414 0.28943535600000003 0.296473608 0.26373016800000004 0.24940839599999998 0.20589876 0.22090401 0.108025326 0.084761316 0.0292993686 0.0346739616 0.05335842600000001 0.120799188 0.33506460000000005 0.56129436 0.7744491 0.83354832 0.70801938 0.57298914 0.56615112 0.42449994 0.296800524 0.146729394 0.061847712 0.04172553 0.059317758 0.36392004 1.0821810600000001 1.7325381599999998 2.31936696 2.4532178399999998 1.90012716 1.6591197599999998 1.41642756 1.04950728 0.71655678 0.35496792 0.11098863 0.07295184 0.082379916 0.85569696 4.765796999999999 8.5273398 10.373734800000001 10.642476599999998 5.2949862 4.8544920000000005 4.056091199999999 3.16357326 1.90841346 0.7795601999999999 0.162843048 0.10353906 0.09582219 1.1097097200000001 11.1858894 25.0381692 27.7220232 29.1729924 18.3368772 18.0979272 16.042179599999997 12.9517866 5.8414284 1.11097332 0.228819816 0.09837126 0.140066658 1.16190612 11.6786448 24.966711 27.3152412 31.586841 44.719938 52.725006 37.109178 31.814888399999994 10.022437799999999 1.35875394 0.280940886 0.11386153800000001 0.12971502000000001 1.17399294 11.877645600000001 24.881337 27.2719386 33.214374 91.286352 161.921268 43.387488000000005 32.818608 10.8295218 1.3392377999999998 0.303146874 0.11785678200000001 0.12080680199999999 1.1519431199999999 11.847141 24.8201496 27.218916 32.0521374 44.15229 51.819426 37.603602 32.421141000000006 10.022032800000002 1.2825799199999999 0.249894072 0.10196766000000002 0.11464318800000001 0.99759924 11.0882682 24.4967328 27.2464074 28.8840978 18.0597924 18.551122200000002 16.080444 12.8388402 5.888343600000001 1.12225014 0.185447394 0.07935505200000001 0.12100104 0.92343888 4.6091106 8.3556198 10.172109599999999 10.8069714 5.3638200000000005 4.8469752 4.3885962 3.2841449999999996 1.80499428 0.65856402 0.17694676799999998 0.098510742 0.120260862 0.39064356 1.0835289 1.80939582 2.2913798400000003 2.51162046 1.99454886 1.69780212 1.43040168 1.19583216 0.76873698 0.297941814 0.080981694 0.071519922 0.07832683800000001 0.117746784 0.35011116 0.6171762599999999 0.7906458599999999 0.80279586 0.7568883 0.66156426 0.54715824 0.47242764000000004 0.29328690599999996 0.163766124 0.067874922 0.05161968 0.080923212 0.045855234 0.120463038 0.230769648 0.309523032 0.297179604 0.257321448 0.243927126 0.218219184 0.189623268 0.124169274 0.064916802 0.0221508594 0.027862331400000002 0.039951144 0.012164547599999999 0.047455146000000004 0.122800698 0.17001867599999998 0.159220566 0.125444538 0.173251872 0.12867967800000002 0.11478704399999999 0.100916118 0.063991134 0.035676126 0.0291208284 0.032167594800000004 0.0066318264000000005 0.052614522 0.15684289199999998 0.172252494 0.16370828999999998 0.15558625799999998 0.166124358 0.16380889199999998 0.109994436 0.108050112 0.080112402 0.073733976 0.040603356 0.032544747 0.004600314 0.045418481999999996 0.09691034400000001 0.13144615199999998 0.113738256 0.138486996 0.135143154 0.127558314 0.09140282999999999 0.088111152 0.065169684 0.05086314 0.0335128428 0.029710735200000005 