# vtk DataFile Version 3.0
Generated by meshtal class from   02/03/21 00:08:52  vtk output
ASCII
DATASET RECTILINEAR_GRID
DIMENSIONS 16 24 21
X_COORDINATES 16 float
0.0
20.0
40.0
60.0
80.0
100.0
120.0
140.0
160.0
180.0
200.0
220.0
240.0
260.0
280.0
300.0
Y_COORDINATES 24 float
-184.5
-164.5
-144.5
-128.83
-113.17
-97.5
-78.5
-63.5
-48.5
-35.5
-22.5
-7.5
7.5
22.5
35.5
48.5
63.5
78.5
97.5
113.17
128.83
144.5
164.5
184.5
Z_COORDINATES 21 float
-100.0
-82.8
-65.6
-48.4
-31.2
-14.0
1.0
16.0
35.0
45.0
61.67
78.33
95.0
115.0
135.0
155.0
175.0
195.0
215.0
235.0
255.0
CELL_DATA 6900
FIELD FieldData 2 
TotalTally_Thermak13 1 6900 float
0.0 0.0 0.0 0.0 0.0 0.0 0.0 0.0 0.0 0.0 0.0 0.0 0.0 0.0 0.0 0.0 0.0 0.0 0.0 0.0 0.045991395 0.05392391939999999 0.045368035200000004 0.0338034708 0.029340662399999995 0.045301032000000005 0.05622856379999999 0.054893862 0.037780392600000004 0.033992022600000005 0.028075653 0.0195394032 0.0076122261 0.0032877867599999996 0.001754097606 0.00268012476 0.00148617504 0.0010085812200000001 0.000340945038 0.0 0.396665748 0.36904977 0.297699948 0.23058513 0.220252122 0.25187581800000003 0.32614196399999995 0.289852506 0.25930043999999997 0.212574294 0.14808744000000001 0.101155716 0.04282065 0.022562712 0.01100504718 0.0165312576 0.00717719778 0.00738772812 0.00151343802 0.0 1.56471264 1.49595012 0.82537866 0.625535136 0.5667233039999999 0.58959009 0.7970578199999999 0.7267812480000001 0.63611892 0.477215064 0.346844754 0.21909852000000002 0.0944203554 0.0597913488 0.056637824399999995 0.0596450466 0.0353687634 0.0152711892 0.002623995 0.0 3.6726129 3.55815666 2.17913004 1.78261884 1.4497655400000002 1.48112712 2.29972608 2.02050288 1.62218538 1.22857074 0.8005926600000001 0.500006358 0.283737978 0.25601799599999997 0.346448664 0.266172804 0.0812353212 0.0204526944 0.001702658232 0.0 5.68233792 6.24801276 7.3948464 6.251168519999999 4.5711702 3.85492608 3.79930338 3.0578229 2.3025513600000003 1.64487834 1.00626462 0.563237064 0.44825805 0.69956865 0.8529293520000001 0.468069516 0.12190516199999998 0.0305851626 0.0029704805999999995 0.0 10.420860600000001 16.1853714 23.2297632 24.0374466 14.871567599999999 11.7210078 9.014133600000001 6.4049292 4.29131844 2.6516322 1.32162354 0.601704612 0.644661504 1.00277676 1.08902232 0.591567948 0.156212064 0.0396265608 0.0034175212199999997 0.0 28.3336542 46.8610434 72.2807712 96.40587599999999 57.0221046 35.4906036 26.945135999999998 18.0905076 10.4508306 5.759125920000001 2.7690724799999997 1.31058162 1.02061782 1.2542202 1.3107177 0.711328554 0.1801116 0.039923652600000005 0.00555070644 0.0 120.437928 183.78397800000002 277.01173800000004 411.592266 321.24843 87.94218599999999 77.562036 46.93663260000001 23.494989600000004 12.7599138 6.4626336 2.40998976 1.34066988 1.56471912 1.5791095800000001 0.846770112 0.20662403399999998 0.059242914 0.0067352634 0.0 487.410372 627.221556 828.2300220000001 1135.27008 1356.507 690.3954 669.24144 391.34745 130.49829 33.0729804 10.569690000000001 3.2713389 1.70177436 1.83529152 1.76686434 0.93884346 0.24046421399999998 0.0555472728 0.00508073634 0.0 505.879506 654.148386 888.6234599999999 1326.33774 2375.5599 4921.0043399999995 4556.817 2324.87658 498.617856 52.4821032 14.2926282 4.04113374 1.9567380600000002 1.9319763600000002 1.8502554599999999 1.00246248 0.246124494 0.0590035266 0.006623972640000001 0.0 508.52804399999997 661.7167019999999 915.68556 1435.4868600000002 3070.93842 18922.572 14707.655999999999 2821.94118 577.82403 61.116444 15.8988744 4.3908399 2.0582181 2.02282272 1.87458624 0.9818819999999999 0.256256298 0.0632595906 0.0064134050399999995 0.0 505.864602 652.37076 885.620142 1322.42706 2371.57146 4903.89552 4544.56818 2325.06936 498.07872000000003 52.402820399999996 14.2523226 4.1216931 1.99486314 2.00683818 1.9109682000000001 0.98262072 0.23854824 0.05978332980000001 0.00571900824 0.0 486.14466600000003 624.856356 823.678308 1125.67158 1348.893 687.7305 668.38284 391.651686 130.775958 33.150189600000004 10.6460406 3.34783044 1.7213877 1.8214712999999998 1.7238436200000002 0.93714084 0.261939582 0.06658734599999999 0.0076403736 0.0 121.046238 183.916008 274.520664 404.025732 315.62800200000004 86.089878 76.57578 46.6513506 23.8423338 12.811964399999999 6.395565599999999 2.38853934 1.4300355599999999 1.5769582200000003 1.56361104 0.810218862 0.202330872 0.0561958074 0.005457457620000001 0.0 28.2212586 46.3362606 70.608672 93.115332 53.02157939999999 33.8538852 26.3658402 17.7715134 10.5931638 5.9377374000000005 2.7883942200000003 1.3508742599999999 0.9817297199999999 1.3028574599999998 1.35517536 0.7542156240000001 0.18046719 0.051377457599999996 0.00670989096 0.0 10.2726954 15.60141 22.211074800000002 22.8544254 13.366020599999999 11.4408774 8.9256006 6.3265536 4.13724024 2.57499648 1.33569324 0.624779244 0.67447809 0.98529858 1.09550394 0.6203495160000001 0.165964302 0.048891389400000006 0.0044787978 0.0 5.82523326 6.29892126 7.080482160000001 5.78240046 4.23042426 3.6681271200000003 3.6849459599999994 2.8805058000000003 2.01272526 1.5406718400000001 0.9284625 0.563871942 0.46981960200000006 0.7150321980000001 0.8681944500000001 0.47384578800000005 0.129133116 0.031129466400000003 0.00374332104 0.0 4.11936354 3.71774124 2.1904749 1.74607002 1.3662837 1.28199024 2.08866114 1.7740296 1.42444818 1.023516 0.74421504 0.431505144 0.322623486 0.29589656400000003 0.35081893799999997 0.28393642799999996 0.09993569399999999 0.021457953 0.00187713612 0.0 1.79967744 1.6020568800000001 0.843696 0.7036065 0.533920734 0.4857356159999999 0.6834167640000001 0.612908208 0.495697968 0.35208027 0.25865276400000003 0.19388176199999999 0.10414704600000001 0.0699574482 0.0667295658 0.051881682600000006 0.041335758 0.0165442824 0.00180839304 0.0 0.407913894 0.389940642 0.308843604 0.252599148 0.223234542 0.18726957 0.233711568 0.21825482400000001 0.19255465800000002 0.14848903800000002 0.08652549600000001 0.054228220199999996 0.0395418186 0.0208303002 0.014573029139999999 0.011297151 0.009375040440000001 0.0071276759999999995 0.0016629251400000003 0.0 0.0434092932 0.0496743516 0.0426410892 0.0362348964 0.0335536992 0.0281523276 0.0416573928 0.0341118216 0.0265261554 0.025969523400000003 0.0148652334 0.00896353128 0.00655447788 0.0034538027400000003 0.0027500633999999998 0.00204310512 0.001601273448 0.00170783154 0.000458158842 0.0 0.0 0.0 0.0 0.0 0.0 0.0 0.0 0.0 0.0 0.0 0.0 0.0 0.0 0.0 0.0 0.0 0.0 0.0 0.0 0.0 0.0 0.0 0.0 0.0 0.0 0.0 0.0 0.0 0.0 0.0 0.0 0.0 0.0 0.0 0.0 0.0 0.0 0.0 0.0 0.0 0.0576030528 0.070293663 0.0711289998 0.0570416904 0.04485219480000001 0.04931662320000001 0.0513999594 0.05008623659999999 0.0410519502 0.031742263800000003 0.0217127304 0.0183380112 0.011435094 0.0044662671 0.0026589465 0.0017960670270000003 0.001426308912 0.00154276974 9.025948908e-05 0.0 0.41498244 0.45664155 0.439429212 0.37595291399999997 0.30033293400000005 0.30535947 0.335812716 0.303043842 0.255250926 0.205523406 0.12035466 0.096644016 0.049338363600000004 0.0315876024 0.0255874302 0.011566262160000002 0.01061891532 0.005525418240000001 0.00144011844 0.0 1.22827428 1.26705708 1.1781514800000001 0.9592263000000001 0.748385406 0.795474432 0.920342574 0.8463853619999999 0.6931860120000001 0.527505696 0.34621668000000005 0.246936924 0.14924849399999998 0.0865953018 0.0766444032 0.06981715620000001 0.0425017692 0.01415484882 0.0011380093379999999 0.0 4.07135484 4.15640322 3.00916134 2.53824516 1.90962198 1.86458112 2.83912938 2.48766228 1.9750311 1.4443110000000001 1.01913552 0.6651640620000001 0.449150022 0.376562034 0.40395574799999995 0.271548936 0.07500420179999999 0.0158970924 0.00265779954 0.0 12.458934 10.720155599999998 8.53524054 7.4626353 5.19451056 4.3178751 4.50486198 3.5357309999999997 2.6283495599999998 1.94099814 1.2626118 0.8447200020000001 0.6847453259999999 0.953603604 0.9689727060000001 0.487246104 0.10943586 0.033938757 0.0032245857 0.0 20.0308626 19.239152400000002 24.3828306 25.826104800000003 15.7164462 11.7210888 9.0656982 6.445839059999999 4.29640524 2.8859846399999998 1.66025052 0.92932596 1.06760916 1.41314058 1.2768515999999999 0.644492052 0.159112026 0.037039518 0.00465752268 0.0 29.9675376 49.197666600000005 75.6817182 102.042342 58.966396200000005 33.860754 23.9605776 15.6007296 9.5607054 5.70990384 3.15082548 1.83736188 1.6106185800000001 1.7879454 1.5762664800000001 0.7893046619999999 0.179896626 0.0434071548 0.00422029764 0.0 128.833578 199.739844 305.138502 458.603532 349.15811399999996 73.4228874 61.4757762 36.0271962 18.1384434 10.486146600000001 6.685906859999999 3.0108931200000004 2.0127285 2.18310876 1.84494834 0.90952956 0.217619946 0.047645495999999996 0.00557644014 0.0 546.567912 712.391112 951.0354179999999 1312.15302 1527.95646 681.83289 661.496706 395.74089000000004 125.763354 28.363915799999997 10.8964926 4.054952340000001 2.6350596 2.6500608 2.09520432 0.968816376 0.217957392 0.05304338459999999 0.005124939659999999 0.0 568.969596 744.5688479999999 1023.3653400000001 1528.1897400000003 2617.4615400000002 4839.4746 4536.46656 2577.25476 529.836876 45.5070636 14.4340542 4.99796406 2.9658457799999995 2.81928438 2.26553598 1.06089588 0.242485488 0.0600701832 0.00676669464 0.0 572.12811 754.1459639999999 1054.11942 1649.4483599999999 3288.4979399999997 15664.59 12339.646920000001 3049.38432 611.008758 53.74701540000001 16.0680348 5.47239888 2.9904697799999997 2.9358174600000004 2.3509213200000003 1.11880926 0.279391518 0.0647088102 0.00631971396 0.0 568.369872 743.990184 1021.39866 1524.94002 2614.9894200000003 4828.68378 4526.39178 2574.9576 529.5263219999999 45.6433866 14.536017000000001 5.07884904 2.99618514 2.8059841800000003 2.25904626 1.0767200399999999 0.259450938 0.0569306394 0.0060189075 0.0 546.0595559999999 712.4380920000001 950.108292 1311.4288800000002 1526.5017 681.591186 659.683926 395.479746 125.77599000000001 28.5897438 11.021994 4.1515416 2.5723332 2.5796426399999994 2.16580068 1.0182915000000001 0.22591321199999997 0.0491727186 0.00499974768 0.0 129.204072 201.128346 305.679258 458.248914 350.11812599999996 73.391265 60.822657 35.9333172 18.169822800000002 10.6159572 6.7608739799999995 3.0336282 2.1472371 2.23801218 1.8492867 0.882597546 0.206282538 0.0440222364 0.0046677594599999995 0.0 30.1837266 49.325922 75.5888112 101.748636 58.7207718 33.6852594 23.568618599999997 15.5782116 9.4874328 5.73203142 3.21373494 1.8129436200000002 1.54653786 1.90993788 1.6530204599999998 0.759451788 0.18636139799999998 0.0428266116 0.00446799078 0.0 21.3862842 20.0105478 24.4927314 25.7087844 15.497973 11.5922016 8.822844 6.37381548 4.40912484 2.84780772 1.6859826 0.95852808 1.0264158 1.3876207200000001 1.29108006 0.639075906 0.163006668 0.040277687400000005 0.0055810458 0.0 13.769627400000001 11.4998292 8.57061162 7.23582234 5.139424080000001 4.174649280000001 4.34651346 3.42129744 2.54092464 1.9376544599999999 1.24440948 0.7667349840000001 0.7193776860000001 0.944873424 0.969034914 0.498373722 0.121440546 0.0334961406 0.00457686936 0.0 4.58277588 4.49578512 3.0938209199999998 2.57361138 1.94175954 1.7950329000000003 2.80795734 2.42840268 1.8706528800000002 1.47801348 0.954398862 0.657100836 0.434567754 0.37706796 0.389461608 0.268465752 0.0835427844 0.024683373 0.0023706351 0.0 1.3104034199999999 1.36083888 1.28516706 0.9983638800000001 0.78556959 0.75663801 0.9114555780000001 0.798552108 0.698838192 0.539156412 0.34958530800000004 0.22427215200000003 0.151982082 0.092136528 0.06627168900000001 0.0635792976 0.0358527708 0.0187089264 0.003535812 0.0 0.40874625 0.48547981799999995 0.45475182000000003 0.352642248 0.32288965199999997 0.32230386 0.318030138 0.283930434 0.22591677599999999 0.189953748 0.1188614088 0.08261635500000002 0.052464185999999996 0.0393822162 0.0188521506 0.013006429199999999 0.009892789199999998 0.005825001599999999 0.00153145404 0.0 0.0576891072 0.082445364 0.0647188218 0.0553483206 0.0516940542 0.050490426600000006 0.053176824000000004 0.0418251114 0.0342787626 0.0291279078 0.0205398342 0.014741157599999999 0.0082505628 0.00623234898 0.0053190432 0.00260488872 0.0013799775599999998 0.000940008888 0.0002008168200104702 0.0 0.0 0.0 0.0 0.0 0.0 0.0 0.0 0.0 0.0 0.0 0.0 0.0 0.0 0.0 0.0 0.0 0.0 0.0 0.0 0.0 0.0 0.0 0.0 0.0 0.0 0.0 0.0 0.0 0.0 0.0 0.0 0.0 0.0 0.0 0.0 0.0 0.0 0.0 0.0 0.0 0.10507060800000001 0.11797974 0.122957838 0.1022655456 0.10179917999999999 0.0812918754 0.07058981519999999 0.059525814600000004 0.0455742126 0.0351164322 0.022064124600000002 0.020921457600000002 0.012994749 0.00598390902 0.004484215079999999 0.002459620728 0.00177326172 0.0007839664380000001 0.00027442888938 0.0 0.649933308 0.7798386780000001 0.832785786 0.71457309 0.602542962 0.535560174 0.435549474 0.351861894 0.27471717 0.204964992 0.14594596199999998 0.0880116192 0.0645953292 0.035489178 0.021364835399999997 0.014603404140000002 0.00696380328 0.00452304 0.0009823853178000002 0.0 1.7158343400000002 2.22088716 2.3756263200000003 1.9230355799999999 1.5273198000000001 1.3236388199999998 1.18621584 1.0047314520000001 0.76445694 0.56349432 0.40074102000000006 0.260313102 0.174875274 0.0951618456 0.0638266878 0.045384769799999995 0.0331546122 0.013098104999999999 0.00264691476 0.0 4.68755424 5.6987112600000005 6.33551544 5.56605594 3.85535052 3.39493842 3.80749896 3.03145254 2.4734824200000003 1.80421668 1.220223042 0.848833506 0.4855302 0.38459464199999993 0.302690844 0.168453108 0.070267986 0.0187861842 0.00196292646 0.0 16.1938278 16.330815 16.108389 15.3232398 9.76404456 7.664190840000001 6.7117167 5.16601962 3.973536 2.9570200200000003 1.97061822 1.2407320800000001 0.9703445220000001 0.924831756 0.731701512 0.34689141 0.0851548788 0.0265351464 0.0033396867 0.0 58.6692234 40.309326 34.728296400000005 37.5346548 23.252815799999997 16.6571316 13.1178852 10.137247200000001 7.4435500800000005 5.2016142599999995 3.2767853400000004 1.8330138 1.6224364799999997 1.4198149799999997 1.01079252 0.434865996 0.1004909004 0.0287760276 0.004645204200000001 0.0 55.255138200000005 68.2084476 87.94903860000001 116.78742 72.104823 42.411713400000004 31.1734656 22.7899818 15.8331024 10.89957708 6.91645554 3.6655011 2.49361902 1.94130432 1.30741614 0.537840324 0.125516628 0.0304352154 0.00401343012 0.0 142.835238 220.08623400000002 330.42492 491.813532 375.641226 79.2974286 66.597795 42.5009754 24.8029452 17.4124242 12.3310512 5.50068894 3.2259951000000004 2.3995845 1.5269990400000002 0.6408297179999999 0.157402764 0.046696257000000005 0.0068765922 0.0 592.00551 772.9578900000001 1027.224504 1401.6709799999999 1600.3315799999998 677.753568 657.804402 402.750792 130.829094 34.7607612 17.6385924 7.1147484 3.96549594 2.76098868 1.69446978 0.7156484460000001 0.225066762 0.06936597 0.006380591939999999 0.0 615.498426 805.9187340000001 1102.2998400000001 1617.8842799999998 2673.45684 4788.00882 4498.0790400000005 2640.97098 548.867016 52.7786928 22.1751918 8.48833344 4.5445779 3.05342298 1.8702964800000001 0.7598206620000001 0.176608836 0.044697501 0.0059164344 0.0 618.7964220000001 815.9886539999999 1135.574154 1738.43496 3313.93032 15478.2738 12188.16072 3095.94474 628.412256 60.509916 24.168699 9.13412538 4.79956914 3.1883139000000003 1.8644013 0.78866541 0.2008638 0.0492463962 0.00566625132 0.0 614.545866 806.306562 1102.974894 1617.2136 2670.42744 4779.383940000001 4490.97534 2641.42134 549.08037 52.8463602 22.0392576 8.40312144 4.4428402799999995 3.11306976 1.84306914 0.757798092 0.19564010999999998 0.0519484266 0.00660995478 0.0 592.7847300000001 772.434468 1026.995436 1401.6758399999999 1600.01406 677.377242 658.3736700000001 403.286526 131.254344 34.835508 17.726137199999997 7.159970699999999 3.9755626200000003 2.80624824 1.69647696 0.7329766139999999 0.178078662 0.0571109292 0.0071866277999999995 0.0 142.644078 220.38836400000002 331.362414 490.755186 376.67025 79.49962080000002 67.2223374 42.4620144 24.934246200000004 17.4440952 12.205711800000001 5.56122672 3.2902912799999995 2.397681 1.51585182 0.6149575079999999 0.156105792 0.048973653 0.00468555354 0.0 58.2642882 70.0499502 88.611813 117.369324 72.0857394 42.701790599999995 31.4062758 22.7279844 15.562773 10.81390338 6.8543382600000005 3.64141332 2.48366574 1.9101047400000002 1.27908558 0.541282338 0.130238928 0.030795195600000002 0.0037604655 0.0 64.2678138 42.126382799999995 35.26416 37.4803362 23.309775 16.3811322 13.091041800000001 10.116791460000002 7.41205242 5.35507362 3.2496600600000005 1.92595482 1.59870834 1.38794796 1.0110533400000001 0.490383396 0.113903658 0.034492003199999996 0.00457301052 0.0 17.4408066 17.0116686 16.0958664 15.3894816 9.807719760000001 7.7038857 6.572467980000001 5.20832592 4.0093785 2.9776717799999997 1.9843655399999998 1.2136894200000001 0.995535684 0.94218147 0.70764597 0.326566404 0.10665756 0.024213880799999997 0.0029295189 0.0 4.78836846 5.81876136 6.5456942399999996 5.595996780000001 3.84775434 3.44651922 3.71733948 2.9750603399999997 2.39676408 1.8257934599999999 1.28118996 0.7998458399999999 0.506503044 0.340373988 0.280100592 0.162020736 0.0545025186 0.022186062 0.002207858148 0.0 1.7195506200000001 2.25992916 2.41237764 1.9494626400000001 1.4650939799999998 1.34591544 1.1901492 0.929123298 0.739708038 0.5815615319999999 0.423167328 0.294164136 0.152667018 0.09176004 0.054295077600000005 0.037678737600000005 0.0286982676 0.010424457 0.0014988149765999999 0.0 0.6591551579999999 0.772906698 0.83782026 0.683498898 0.573001128 0.532434546 0.42819969599999996 0.341806068 0.268054758 0.207960858 0.15156072 0.116150922 0.054241245 0.0450383328 0.020089377 0.013201478820000001 0.00817077618 0.004831826579999999 0.000870361604352 0.0 0.106824258 0.1140363036 0.12964309200000002 0.0969493212 0.0989959482 0.0843306066 0.0755444232 0.0557861094 0.052425063 0.036909399600000004 0.0254215908 0.024951596399999998 0.01152274572 0.007903847160000001 0.00433061964 0.0044602309799999995 0.00150176916 0.00125173998 0.0002843295372 0.0 0.0 0.0 0.0 0.0 0.0 0.0 0.0 0.0 0.0 0.0 0.0 0.0 0.0 0.0 0.0 0.0 0.0 0.0 0.0 0.0 0.0 0.0 0.0 0.0 0.0 0.0 0.0 0.0 0.0 0.0 0.0 0.0 0.0 0.0 0.0 0.0 0.0 0.0 0.0 0.0 0.15455026800000002 0.196401996 0.20502736200000002 0.17089574400000002 0.159055164 0.146251818 0.134129034 0.099901674 0.0805249512 0.052780539599999995 0.040235211 0.0319776336 0.0233419158 0.0194585166 0.0114112476 0.0076683348 0.00434487888 0.00280841904 0.00023815377 0.0 1.022425092 1.35564192 1.4916117599999998 1.2836394 1.11518694 0.951489342 0.725240952 0.522032688 0.380948184 0.280562616 0.20315691 0.161672922 0.10776661200000001 0.0717586938 0.0486654804 0.0241786296 0.0213445044 0.0094358844 0.00221942268 0.0 2.94269436 4.05077598 4.637995200000001 4.02914412 3.16787112 2.6515269 1.63837242 1.2222819 0.826402662 0.621222858 0.45525045599999997 0.312472404 0.20319255000000003 0.123502482 0.08254580399999999 0.049160358 0.0344473074 0.01644663366 0.0027900741600000003 0.0 9.20639196 12.26529378 14.4843552 13.4166294 8.86119588 7.49551806 3.89512476 2.7888073199999996 2.08143594 1.48485636 1.01672658 0.702138132 0.41415494399999997 0.24557904 0.16418181599999998 0.10565213940000001 0.0491931306 0.0267965658 0.00412738578 0.0 38.1794958 46.4349672 54.5052078 55.4162958 31.070919599999996 22.578539400000004 9.04070808 6.75824634 4.987129500000001 3.67775154 2.39684346 1.44008118 0.8150882580000001 0.46244277 0.28362943799999996 0.164554902 0.0764821278 0.031567044600000004 0.00500686434 0.0 123.71138099999999 112.75980840000001 111.2679666 121.3373844 71.1417816 41.1830244 24.5182302 19.447533 14.308147799999999 10.268596800000001 6.30033876 3.52836162 1.61753436 0.763674642 0.38821663799999995 0.192699 0.08159484780000001 0.0444225222 0.00600764202 0.0 151.977384 163.99665 168.04989 209.378358 152.763732 86.84424720000001 71.4343212 56.842884 40.8948588 29.2485978 16.579485000000002 7.1218780200000005 2.6061912 1.041983838 0.495084798 0.266221566 0.12090578400000002 0.043651337400000004 0.00773696934 0.0 187.69449600000002 270.71803800000004 389.121084 553.709358 486.051678 181.980432 176.43096 134.522451 97.428501 70.60337460000001 32.2305156 10.64751156 3.51126252 1.33309476 0.597196638 0.30360857399999996 0.129891924 0.061343487 0.0119006334 0.0 620.17002 805.2380099999999 1065.3097320000002 1440.38898 1666.24938 730.353186 715.728312 455.21918999999997 182.22408 110.1451932 43.9510536 13.6739664 4.309217820000001 1.52162388 0.69543846 0.36214533000000004 0.158628618 0.0605522466 0.0100278243 0.0 644.601564 839.629638 1138.887054 1652.2541999999999 2689.50618 4772.17494 4485.79296 2655.3776399999997 583.277922 138.2538942 54.2003724 16.4481516 4.940271000000001 1.7215448400000002 0.77898915 0.373555314 0.148421808 0.059873094 0.00801342234 0.0 648.765288 851.7381660000001 1173.713004 1772.7255000000002 3319.2147600000003 15434.7282 12168.20232 3099.47472 663.7316579999999 151.785414 58.3176186 17.6131584 5.3561833199999995 1.77990534 0.793319184 0.40415063399999995 0.15882544799999998 0.0629159076 0.00936053172 0.0 644.6530799999999 840.3811559999999 1139.7626639999999 1653.7769999999998 2689.2648 4762.89396 4479.099120000001 2655.59148 583.312914 138.533571 54.111272400000004 16.458147 5.05986102 1.77745104 0.7894007279999999 0.41764167 0.16943207400000002 0.06456351240000001 0.00701364258 0.0 620.622162 806.955372 1066.416678 1442.1223799999998 1665.9982800000002 729.82539 716.878512 455.807574 182.660508 110.10099960000001 43.7315274 13.9514238 4.35633228 1.4928494399999999 0.703734156 0.35119882799999996 0.143884998 0.0540612792 0.0103308372 0.0 188.26619399999998 271.327644 389.67544799999996 553.613454 485.151606 182.10015 176.28840000000002 134.5730112 97.20942840000001 70.49314980000001 32.1977592 10.58950584 3.5069306399999998 1.2493396259999998 0.5719531499999999 0.31906774800000004 0.137274912 0.0500258916 0.00937879884 0.0 158.207418 167.899878 168.525036 208.861902 152.63720999999998 86.5540728 72.0082872 56.7993384 41.0626908 29.40786 16.5339306 7.06338468 2.5566677999999996 1.014152562 0.48782379600000003 0.25477578 0.107053974 0.04018040640000001 0.00670749012 0.0 130.14781920000001 116.5559868 111.14700119999999 121.373154 71.25782219999999 40.8432942 24.6901446 19.3879818 14.323683599999999 10.358957160000001 6.2122221 3.48951888 1.64615328 0.741020886 0.391968234 0.20684079 0.098795052 0.039205360800000005 0.00441764604 0.0 39.0211344 46.596400200000005 54.8298234 55.14823440000001 30.865941 22.4913348 9.123428520000001 6.82601904 4.98904596 3.7231812000000004 2.4083049599999997 1.4737059 0.8359587179999999 0.464705586 0.285423264 0.160269192 0.0760860702 0.0385246854 0.00675793044 0.0 9.160891020000001 12.20917212 14.5191042 13.3375896 8.942012819999999 7.5066993 3.8669464799999997 2.7989922600000003 2.0028610799999997 1.52204022 1.025409618 0.702646326 0.411374376 0.24616305 0.159990876 0.10480314599999999 0.0540575694 0.025416925200000003 0.0034369434 0.0 2.9986524 3.9409983 4.6776933000000005 3.98034972 3.1031164799999997 2.78478 1.71334764 1.21030038 0.88798356 0.6308450099999999 0.481746042 0.31563432 0.19941551999999999 0.118963404 0.0761164452 0.04992700680000001 0.0385465068 0.0196201602 0.002421892548 0.0 1.020273246 1.3453533 1.50982218 1.24767378 1.13091228 1.014633216 0.740270502 0.547134264 0.363793356 0.28673497800000003 0.219476304 0.167710824 0.1050733296 0.0630032256 0.0390713544 0.0225955656 0.018706334400000003 0.0120317562 0.00297390042 0.0 0.14602113 0.198997884 0.20200023000000003 0.176889258 0.166100382 0.15419986200000002 0.133213734 0.1025876664 0.07329609 0.0560369178 0.040316292 0.0302378994 0.0199778886 0.0119378448 0.010105884 0.005328565560000001 0.0043201594619999995 0.00242313444 0.000518880816 0.0 0.0 0.0 0.0 0.0 0.0 0.0 0.0 0.0 0.0 0.0 0.0 0.0 0.0 0.0 0.0 0.0 0.0 0.0 0.0 0.0 0.0 0.0 0.0 0.0 0.0 0.0 0.0 0.0 0.0 0.0 0.0 0.0 0.0 0.0 0.0 0.0 0.0 0.0 0.0 0.0 0.218232954 0.281125242 0.29925061199999997 0.263445534 0.256317372 0.23957288999999998 0.20715588 0.18398242799999998 0.1138235328 0.104461002 0.07391007 0.051875575199999996 0.0377156574 0.027909473400000002 0.0190828062 0.011557371600000001 0.006547187879999999 0.0035856351 0.00060851088 0.0 1.49412438 1.98178974 2.2153743 1.91225448 1.7865894599999999 1.63355292 1.3311491400000002 1.0394287739999999 0.648165726 0.528306786 0.38513021399999997 0.28732465799999996 0.20629582200000002 0.156378924 0.09298618560000001 0.0609628842 0.0345620196 0.0175816008 0.002903092488 0.0 4.5221911200000005 6.08278086 7.2556641 6.4282248 5.32310778 4.785510780000001 3.3149330999999997 2.427408 1.4797144800000002 1.1605974840000002 0.884105928 0.6545295720000001 0.45223353 0.300546774 0.20143728 0.13669446600000001 0.0810288684 0.0373466862 0.00763678854 0.0 15.3080928 20.4771888 25.286742 24.159011399999997 16.739622 14.5278684 7.427199419999999 4.865592240000001 3.01408452 2.3846254200000003 1.72167768 1.1567772 0.7793329139999999 0.506747502 0.31314373199999995 0.204875568 0.11921145840000001 0.0522416628 0.00907442676 0.0 100.3834296 127.3633146 154.62171 159.337854 84.3827706 60.2592696 16.752452400000003 11.5153974 8.1078894 6.10638588 4.05301158 2.48845608 1.48800564 0.838235304 0.425865276 0.262293876 0.144334224 0.0629444358 0.010070943839999999 0.0 363.423024 429.63728399999997 497.599038 534.409812 292.07611799999995 154.351494 43.775186399999996 33.245802 24.5132892 17.6248224 10.65505428 5.95167912 2.91171834 1.25883558 0.582463224 0.29855498399999997 0.1491114258 0.0791614782 0.014130207 0.0 412.31737799999996 503.825184 612.892818 723.378276 527.116086 201.591828 138.9824082 111.39588180000001 80.1087246 55.001300400000005 29.4195402 12.21857136 4.370482979999999 1.64164482 0.740669994 0.346445748 0.17724209400000002 0.090117522 0.013614722999999999 0.0 513.07992 649.82574 828.204588 1055.720628 1065.723156 584.026362 606.4024499999999 472.72377600000004 336.14578800000004 205.72460999999998 62.0496936 18.284534999999998 5.760818820000001 2.01978846 0.8302572899999999 0.43386418800000004 0.21441040199999997 0.09908634420000001 0.0187634232 0.0 637.784442 815.850306 1065.041784 1430.1019800000001 1869.30342 2073.95154 2100.0141 1653.99084 1242.368118 486.618678 87.7900194 23.8364856 7.141750559999999 2.4000073200000003 0.9400414500000001 0.44702879399999995 0.262127664 0.11761086600000001 0.015754905 0.0 657.95247 852.5322900000001 1149.976278 1657.15794 2673.84726 4693.3263 4402.73232 2574.02448 1625.1418800000001 596.864862 109.40119200000001 28.5591906 8.22839634 2.68593732 1.052399952 0.47205179999999997 0.23013153 0.11041369200000001 0.0174362706 0.0 664.499052 866.9203200000001 1186.807626 1779.1714799999997 3305.8044 15405.3414 12144.2328 3033.531 1746.6370200000001 646.4878920000001 119.18793600000001 30.747195 8.85866382 2.75711688 1.070617662 0.48485757599999996 0.271119474 0.113654988 0.016561373400000003 0.0 656.7086340000001 851.984892 1149.1630380000001 1656.7011 2672.94654 4679.7183 4392.955620000001 2571.76944 1625.1127199999999 596.285874 108.9912672 28.635460199999997 8.272133100000001 2.63612394 1.0145204639999998 0.484732674 0.276171282 0.11015060399999999 0.017084115 0.0 638.332812 815.7544019999999 1065.25125 1430.2623600000002 1868.41728 2069.8286399999997 2096.45334 1651.266 1240.7068080000001 486.076788 87.29101080000001 23.5009836 7.11375048 2.37812436 0.979820226 0.44930910599999996 0.223947018 0.10529674379999998 0.014521877640000002 0.0 512.659044 648.500904 829.13949 1055.619702 1064.95722 582.560424 605.353338 470.74365 336.68654399999997 206.097048 62.267113800000004 18.1970712 5.75453808 2.0375274599999997 0.8555838840000001 0.40732421399999996 0.228574386 0.0956705742 0.011599078499999999 0.0 411.89358599999997 504.775476 613.2605580000001 723.020256 526.87584 200.731608 138.39191820000002 111.1276908 80.1990234 55.396305000000005 29.7624942 12.135501000000001 4.35904416 1.6398757800000001 0.727526934 0.344018178 0.19769831999999998 0.0917640576 0.012406951439999998 0.0 363.49365599999993 429.491484 497.834748 534.057462 291.729114 154.027494 43.7789772 33.2394192 24.694777800000004 17.818201799999997 10.7740935 6.06710574 2.82644478 1.205254242 0.5936305319999999 0.31286525400000004 0.17301113999999998 0.0792244476 0.013127637599999999 0.0 100.5237216 127.25858160000001 154.347282 159.727626 84.48299999999999 60.153969599999996 16.811290800000002 11.5111368 8.03133468 6.1327044 4.07784618 2.5924293000000005 1.52065512 0.8085465359999999 0.44059026600000006 0.260955756 0.15453099 0.073321443 0.0124391538 0.0 15.2111844 20.529919800000002 25.3127754 24.142179600000002 16.570656 14.5068408 7.51005756 4.80395448 3.0159944999999997 2.40662016 1.74863124 1.189459242 0.80247105 0.501673014 0.317005002 0.20610903600000002 0.11974975200000001 0.0596836674 0.008398865699999999 0.0 4.41591426 6.040077660000001 7.28394282 6.40974384 5.1619550400000005 4.7972088 3.377052 2.4141078 1.5322834799999998 1.19449566 0.8984929859999999 0.6411133800000001 0.470486232 0.300163806 0.188939952 0.12571005600000001 0.0881363268 0.0410174442 0.00737488152 0.0 1.4912845200000002 1.9808793 2.2283828999999997 1.9372445999999999 1.7654743800000001 1.6744465800000001 1.36733994 1.07622675 0.6859726379999999 0.5139608760000001 0.392173164 0.27151070400000005 0.197527734 0.130434624 0.08236979100000001 0.0602004312 0.035376264000000004 0.0245653722 0.0044713701 0.0 0.210526938 0.289033434 0.29528161199999997 0.264997818 0.25574113800000003 0.23712523200000002 0.217527282 0.190909548 0.133265088 0.0846093762 0.0702398466 0.051500253600000004 0.0368586126 0.0232117002 0.019600898399999997 0.008352691812 0.00609252516 0.00371176506 0.0005928441840000001 0.0 0.0 0.0 0.0 0.0 0.0 0.0 0.0 0.0 0.0 0.0 0.0 0.0 0.0 0.0 0.0 0.0 0.0 0.0 0.0 0.0 0.0 0.0 0.0 0.0 0.0 0.0 0.0 0.0 0.0 0.0 0.0 0.0 0.0 0.0 0.0 0.0 0.0 0.0 0.0 0.0 0.280209294 0.33807067199999996 0.384909894 0.34400230200000004 0.34859726999999996 0.32816907 0.31660875 0.270012042 0.185678244 0.15286206600000002 0.117446598 0.0888029892 0.0636129612 0.0448403364 0.0271577286 0.01601415684 0.009561807 0.007406154 0.0025586344800000004 0.0 1.9063641599999999 2.43222264 2.78752104 2.57151024 2.3845